 Gaussian 16, Revision C.01,
 Gaussian 16:  ES64L-G16RevC.01  3-Jul-2019

 ----------------------------------------------------------------------
 #P HF/aug-cc-pvtz Opt=(Redundant, calcall, verytight) symm=(loose,foll
 ow) Pop=(MK,Hirshfeld,ReadRadii) iop(6/33=2) iop(6/42=6) Polar Freq ma
 xdisk=128GB
 ----------------------------------------------------------------------

 --------
 chloride
 --------
 Symbolic Z-matrix:
 Charge = -1 Multiplicity = 1

 SCF Done:  E(RHF) =  -459.573481467     A.U. after    8 cycles
 Optimization completed.
    -- Stationary point found.
 Normal termination of Gaussian 16 at Wed Jun 19 08:44:16 2024.

 ----------------------------------------------------------------------
 #P Geom=AllCheck Guess=TCheck SCRF=Check Test GenChk RHF/Aug-CC-pVTZ F
 req
 ----------------------------------------------------------------------

 Structure from the checkpoint file:  "chloride19.chk"
 --------
 chloride
 --------
 Charge = -1 Multiplicity = 1

                         Standard orientation:
 ---------------------------------------------------------------------
 Center     Atomic      Atomic             Coordinates (Angstroms)
 Number     Number       Type             X           Y           Z
 ---------------------------------------------------------------------
      1         17           0        0.000000    0.000000    0.000000
 ---------------------------------------------------------------------

 SCF Done:  E(RHF) =  -459.573481467     A.U. after    1 cycles

 The electronic state is 1-A1G.
 Alpha  occ. eigenvalues -- -104.50595 -10.22974  -7.69577  -7.69577  -7.69577
 Alpha  occ. eigenvalues --   -0.73351  -0.15034  -0.15034  -0.15034
 Alpha virt. eigenvalues --    0.28901   0.28901   0.28901   0.33933   0.59538
 Alpha virt. eigenvalues --    0.59538   0.59538   0.59538   0.59538   0.89553
 Alpha virt. eigenvalues --    0.89553   0.89553   1.20012   1.22157   1.22157

 Mulliken charges:
               1
     1  Cl  -1.000000
 Sum of Mulliken charges =  -1.00000

 Dipole moment (field-independent basis, Debye):
    X=              0.0000    Y=              0.0000    Z=              0.0000  Tot=              0.0000
 Quadrupole moment (field-independent basis, Debye-Ang):
   XX=            -17.2314   YY=            -17.2314   ZZ=            -17.2314
   XY=              0.0000   XZ=              0.0000   YZ=             -0.0000

  Exact polarizability:      25.498       0.000      25.498       0.000       0.000      25.498
 Approx polarizability:      22.104      -0.000      22.104      -0.000      -0.000      22.104

 ESP charges:
               1
     1  Cl  -1.000000
 Sum of ESP charges =  -1.00000

 - Thermochemistry -
 -------------------
 Temperature   298.150 Kelvin.  Pressure   1.00000 Atm.
 Atom     1 has atomic number 17 and mass  34.96885
 Molecular mass:    34.96885 amu.
 Zero-point vibrational energy          0.0 (Joules/Mol)
                                    0.00000 (Kcal/Mol)
 Vibrational temperatures:
          (Kelvin)

 Zero-point correction=                           0.000000 (Hartree/Particle)
 Thermal correction to Energy=                    0.001416
 Thermal correction to Enthalpy=                  0.002360
 Thermal correction to Gibbs Free Energy=        -0.015023
 Sum of electronic and zero-point Energies=           -459.573481
 Sum of electronic and thermal Energies=              -459.572065
 Sum of electronic and thermal Enthalpies=            -459.571121
 Sum of electronic and thermal Free Energies=         -459.588504

                     E (Thermal)             CV                S
                      KCal/Mol        Cal/Mol-Kelvin    Cal/Mol-Kelvin
 Total                    0.889              2.981             36.586
 Electronic               0.000              0.000              0.000
 Translational            0.889              2.981             36.586
 Rotational               0.000              0.000              0.000
 Vibrational              0.000              0.000              0.000

 Optimization completed.
    -- Stationary point found.
 Normal termination of Gaussian 16 at Wed Jun 19 08:44:20 2024.
