 Gaussian 16, Revision C.01,
 Gaussian 16:  ES64L-G16RevC.01  3-Jul-2019

 ----------------------------------------------------------------------
 #P HF/aug-cc-pvtz Opt=(Redundant, calcall, verytight) symm=(loose,foll
 ow) Pop=(MK,Hirshfeld,ReadRadii) iop(6/33=2) iop(6/42=6) Polar Freq ma
 xdisk=128GB
 ----------------------------------------------------------------------

 -------
 acetate
 -------
 Symbolic Z-matrix:
 Charge = -1 Multiplicity = 1

 SCF Done:  E(RHF) =  -227.328625749     A.U. after   13 cycles
 SCF Done:  E(RHF) =  -227.330729343     A.U. after   10 cycles
 SCF Done:  E(RHF) =  -227.330741853     A.U. after   11 cycles
 SCF Done:  E(RHF) =  -227.330737445     A.U. after   11 cycles
 SCF Done:  E(RHF) =  -227.330729371     A.U. after   11 cycles
 SCF Done:  E(RHF) =  -227.330756749     A.U. after   11 cycles
 SCF Done:  E(RHF) =  -227.330758036     A.U. after   10 cycles
 SCF Done:  E(RHF) =  -227.330758703     A.U. after   10 cycles
 SCF Done:  E(RHF) =  -227.330758771     A.U. after    7 cycles
 SCF Done:  E(RHF) =  -227.330758771     A.U. after    2 cycles
 SCF Done:  E(RHF) =  -227.330758771     A.U. after    2 cycles
 SCF Done:  E(RHF) =  -227.330758771     A.U. after    2 cycles
 Optimization completed.
    -- Stationary point found.
 Normal termination of Gaussian 16 at Wed Jun 19 09:02:18 2024.

 ----------------------------------------------------------------------
 #P Geom=AllCheck Guess=TCheck SCRF=Check Test GenChk RHF/Aug-CC-pVTZ F
 req
 ----------------------------------------------------------------------

 Structure from the checkpoint file:  "acetate19.chk"
 -------
 acetate
 -------
 Charge = -1 Multiplicity = 1

                         Standard orientation:
 ---------------------------------------------------------------------
 Center     Atomic      Atomic             Coordinates (Angstroms)
 Number     Number       Type             X           Y           Z
 ---------------------------------------------------------------------
      1          6           0        0.000699   -1.336290    0.000000
      2          6           0        0.010267    0.209669   -0.000000
      3          8           0        0.000699    0.743100   -1.110906
      4          8           0        0.000699    0.743100    1.110906
      5          1           0        0.478486   -1.729109   -0.890141
      6          1           0        0.478486   -1.729109    0.890141
      7          1           0       -1.033943   -1.671670    0.000000
 ---------------------------------------------------------------------

 SCF Done:  E(RHF) =  -227.330758771     A.U. after    2 cycles

 The electronic state is 1-A'.
 Alpha  occ. eigenvalues --  -20.27989 -20.27986 -11.11936 -11.03662  -1.17374
 Alpha  occ. eigenvalues --   -1.06883  -0.79020  -0.50672  -0.41907  -0.41601
 Alpha  occ. eigenvalues --   -0.41218  -0.36180  -0.32133  -0.19988  -0.18904
 Alpha  occ. eigenvalues --   -0.18811
 Alpha virt. eigenvalues --    0.13328   0.14394   0.14536   0.18516   0.22077
 Alpha virt. eigenvalues --    0.22910   0.22940   0.24953   0.25211   0.26787
 Alpha virt. eigenvalues --    0.30881   0.32946   0.33258   0.35895   0.36270

 Mulliken charges:
               1
     1  C   -0.647975
     2  C    0.450223
     3  O   -0.779771
     4  O   -0.779771
     5  H    0.268355
     6  H    0.268355
     7  H    0.220584
 Sum of Mulliken charges =  -1.00000

 Dipole moment (field-independent basis, Debye):
    X=              0.0037    Y=             -4.0288    Z=             -0.0000  Tot=              4.0288
 Quadrupole moment (field-independent basis, Debye-Ang):
   XX=            -25.3446   YY=            -32.0406   ZZ=            -35.9034
   XY=              0.0268   XZ=              0.0000   YZ=             -0.0000

  Exact polarizability:      30.402       0.238      41.611      -0.000      -0.000      41.628
 Approx polarizability:      28.588       0.222      32.463       0.000      -0.000      35.896

 ESP charges:
               1
     1  C   -0.431216
     2  C    1.081579
     3  O   -0.909324
     4  O   -0.909324
     5  H    0.054575
     6  H    0.054575
     7  H    0.059136
 Sum of ESP charges =  -1.00000

                      1                      2                      3
                     A"                     A"                     A'
 Frequencies --     30.9418               476.6771               661.7816
 Red. masses --      1.0887                 2.9960                 2.9399
 Frc consts  --      0.0006                 0.4011                 0.7586
 IR Inten    --      0.0437                 1.7352                13.8346
 Raman Activ --      0.3076                 0.1202                 2.5800

                      4                      5                      6
                     A'                     A'                     A"
 Frequencies --    699.7405               960.4942              1094.1279
 Red. masses --      3.2495                 7.0250                 1.4532
 Frc consts  --      0.9374                 3.8185                 1.0250
 IR Inten    --     14.4653                48.5149                17.8585
 Raman Activ --      2.8298                24.8095                 0.1387

                      7                      8                      9
                     A'                     A'                     A'
 Frequencies --   1145.5196              1447.5465              1519.9266
 Red. masses --      2.0885                 1.5034                 4.7232
 Frc consts  --      1.6147                 1.8560                 6.4288
 IR Inten    --      6.0520                26.2881               350.2674
 Raman Activ --      0.2799                 3.0930                24.9813

                     10                     11                     12
                     A"                     A'                     A"
 Frequencies --   1578.7441              1593.4491              1793.2739
 Red. masses --      1.0636                 1.0661                 9.9049
 Frc consts  --      1.5619                 1.5948                18.7669
 IR Inten    --     24.2269                 4.7934               848.0893
 Raman Activ --      4.2468                 2.9353                 5.9956

                     13                     14                     15
                     A'                     A'                     A"
 Frequencies --   3134.1477              3183.8231              3208.5260
 Red. masses --      1.0397                 1.0936                 1.1046
 Frc consts  --      6.0173                 6.5314                 6.6998
 IR Inten    --     48.4920                74.4429                79.8011
 Raman Activ --    167.5905                69.5494                64.7597

 - Thermochemistry -
 -------------------
 Temperature   298.150 Kelvin.  Pressure   1.00000 Atm.
 Atom     1 has atomic number  6 and mass  12.00000

 Molecular mass:    59.01330 amu.
 Principal axes and moments of inertia in atomic units:
                           1         2         3
     Eigenvalues --   152.18447 177.00149 318.18808
           X            0.00213   0.00000   1.00000
           Y            1.00000  -0.00000  -0.00213
           Z            0.00000   1.00000  -0.00000
 This molecule is an asymmetric top.
 Rotational symmetry number  1.
 Rotational temperatures (Kelvin)      0.56914     0.48934     0.27221
 Rotational constants (GHZ):          11.85891    10.19619     5.67193
 Zero-point vibrational energy     134751.7 (Joules/Mol)
                                   32.20642 (Kcal/Mol)
 Warning -- explicit consideration of   2 degrees of freedom as
           vibrations may cause significant error
 Vibrational temperatures:     44.52   685.83   952.16  1006.77  1381.94
          (Kelvin)           1574.21  1648.15  2082.70  2186.84  2271.46
                             2292.62  2580.12  4509.34  4580.81  4616.35

 Zero-point correction=                           0.051324 (Hartree/Particle)
 Thermal correction to Energy=                    0.055624
 Thermal correction to Enthalpy=                  0.056568
 Thermal correction to Gibbs Free Energy=         0.023675
 Sum of electronic and zero-point Energies=           -227.279435
 Sum of electronic and thermal Energies=              -227.275135
 Sum of electronic and thermal Enthalpies=            -227.274191
 Sum of electronic and thermal Free Energies=         -227.307084

                     E (Thermal)             CV                S
                      KCal/Mol        Cal/Mol-Kelvin    Cal/Mol-Kelvin
 Total                   34.905             12.228             69.229
 Electronic               0.000              0.000              0.000
 Translational            0.889              2.981             38.146
 Rotational               0.889              2.981             23.665
 Vibrational             33.127              6.267              7.419
 Vibration     1          0.594              1.984              5.768
 Vibration     2          0.833              1.302              0.719

                           ! Non-Optimized Parameters !
 Normal termination of Gaussian 16 at Wed Jun 19 09:03:26 2024.
