 Gaussian 16, Revision C.01,
 Gaussian 16:  ES64L-G16RevC.01  3-Jul-2019

 ----------------------------------------------------------------------
 #P HF/aug-cc-pvtz Opt=(Redundant, calcall, verytight) symm=(loose,foll
 ow) Pop=(MK,Hirshfeld,ReadRadii) iop(6/33=2) iop(6/42=6) Polar Freq ma
 xdisk=128GB
 ----------------------------------------------------------------------

 -------
 formate
 -------
 Symbolic Z-matrix:
 Charge = -1 Multiplicity = 1

 SCF Done:  E(RHF) =  -188.273983905     A.U. after   11 cycles
 SCF Done:  E(RHF) =  -188.276009039     A.U. after    9 cycles
 SCF Done:  E(RHF) =  -188.276020394     A.U. after    8 cycles
 SCF Done:  E(RHF) =  -188.276020407     A.U. after    6 cycles
 Optimization completed.
    -- Stationary point found.
 Normal termination of Gaussian 16 at Wed Jun 19 08:44:55 2024.

 ----------------------------------------------------------------------
 #P Geom=AllCheck Guess=TCheck SCRF=Check Test GenChk RHF/Aug-CC-pVTZ F
 req
 ----------------------------------------------------------------------

 Structure from the checkpoint file:  "formate19.chk"
 -------
 formate
 -------
 Charge = -1 Multiplicity = 1

                         Standard orientation:
 ---------------------------------------------------------------------
 Center     Atomic      Atomic             Coordinates (Angstroms)
 Number     Number       Type             X           Y           Z
 ---------------------------------------------------------------------
      1          8           0       -0.000000   -1.115479   -0.205640
      2          8           0        0.000000    1.115479   -0.205640
      3          6           0       -0.000000   -0.000000    0.310059
      4          1           0       -0.000000   -0.000000    1.429884
 ---------------------------------------------------------------------

 SCF Done:  E(RHF) =  -188.276020407     A.U. after    1 cycles

 The electronic state is 1-A1.
 Alpha  occ. eigenvalues --  -20.28273 -20.28269 -11.11225  -1.17014  -1.07005
 Alpha  occ. eigenvalues --   -0.55215  -0.43452  -0.39188  -0.35017  -0.20774
 Alpha  occ. eigenvalues --   -0.18754  -0.18514
 Alpha virt. eigenvalues --    0.14455   0.21294   0.21350   0.21670   0.28189
 Alpha virt. eigenvalues --    0.31771   0.32769   0.33769   0.36797   0.37102
 Alpha virt. eigenvalues --    0.39188   0.42003   0.42586   0.45840   0.50157

 Mulliken charges:
               1
     1  O   -0.683307
     2  O   -0.683307
     3  C   -0.014865
     4  H    0.381479
 Sum of Mulliken charges =  -1.00000

 Dipole moment (field-independent basis, Debye):
    X=             -0.0000    Y=              0.0000    Z=              1.7308  Tot=              1.7308
 Quadrupole moment (field-independent basis, Debye-Ang):
   XX=            -18.7541   YY=            -29.2702   ZZ=            -20.2329
   XY=             -0.0000   XZ=              0.0000   YZ=              0.0000

  Exact polarizability:      19.814       0.000      31.700      -0.000       0.000      28.236
 Approx polarizability:      18.174       0.000      26.039      -0.000       0.000      22.840

 ESP charges:
               1
     1  O   -0.868471
     2  O   -0.868471
     3  C    0.930797
     4  H   -0.193854
 Sum of ESP charges =  -1.00000

                      1                      2                      3
                     A1                     B1                     A1
 Frequencies --    824.1856              1195.7208              1482.3482
 Red. masses --     11.6563                 1.8596                11.5585
 Frc consts  --      4.6651                 1.5665                14.9641
 IR Inten    --     35.4361                 5.7567               177.4144
 Raman Activ --      1.8373                 2.5693                18.5230

                      4                      5                      6
                     B2                     B2                     A1
 Frequencies --   1507.2371              1807.4610              2791.5635
 Red. masses --      1.1197                 9.0651                 1.0645
 Frc consts  --      1.4987                17.4487                 4.8875
 IR Inten    --     43.5735              1042.9640               478.8646
 Raman Activ --      2.6819                 0.9340               293.8562

 - Thermochemistry -
 -------------------
 Temperature   298.150 Kelvin.  Pressure   1.00000 Atm.
 Atom     1 has atomic number  8 and mass  15.99491

 Molecular mass:    44.99765 amu.
 Principal axes and moments of inertia in atomic units:
                           1         2         3
     Eigenvalues --    16.14974 142.14535 158.29509
           X           -0.00000  -0.00000   1.00000
           Y            1.00000  -0.00000   0.00000
           Z            0.00000   1.00000   0.00000
 This molecule is an asymmetric top.
 Rotational symmetry number  2.
 Rotational temperatures (Kelvin)      5.36318     0.60933     0.54717
 Rotational constants (GHZ):         111.75048    12.69645    11.40112
 Zero-point vibrational energy      57471.7 (Joules/Mol)
                                   13.73606 (Kcal/Mol)
 Vibrational temperatures:   1185.82  1720.38  2132.77  2168.58  2600.53
          (Kelvin)           4016.44

 Zero-point correction=                           0.021890 (Hartree/Particle)
 Thermal correction to Energy=                    0.024823
 Thermal correction to Enthalpy=                  0.025767
 Thermal correction to Gibbs Free Energy=        -0.001193
 Sum of electronic and zero-point Energies=           -188.254131
 Sum of electronic and thermal Energies=              -188.251198
 Sum of electronic and thermal Enthalpies=            -188.250254
 Sum of electronic and thermal Free Energies=         -188.277214

                     E (Thermal)             CV                S
                      KCal/Mol        Cal/Mol-Kelvin    Cal/Mol-Kelvin
 Total                   15.576              6.959             56.742
 Electronic               0.000              0.000              0.000
 Translational            0.889              2.981             37.338
 Rotational               0.889              2.981             19.147
 Vibrational             13.799              0.997              0.258

 Optimization completed.
    -- Stationary point found.
 Normal termination of Gaussian 16 at Wed Jun 19 08:45:09 2024.
