 Gaussian 16, Revision C.01,
 Gaussian 16:  ES64L-G16RevC.01  3-Jul-2019

 ----------------------------------------------------------------------
 #P HF/aug-cc-pvtz Opt=(Redundant, calcall, verytight) symm=(loose,foll
 ow) Pop=(MK,Hirshfeld,ReadRadii) iop(6/33=2) iop(6/42=6) Polar Freq ma
 xdisk=128GB
 ----------------------------------------------------------------------

 --------
 ammonium
 --------
 Symbolic Z-matrix:
 Charge =  1 Multiplicity = 1

 SCF Done:  E(RHF) =  -56.5639493453     A.U. after    8 cycles
 SCF Done:  E(RHF) =  -56.5648469602     A.U. after    7 cycles
 SCF Done:  E(RHF) =  -56.5648490144     A.U. after    5 cycles
 Optimization completed.
    -- Stationary point found.
 Normal termination of Gaussian 16 at Wed Jun 19 08:44:25 2024.

 ----------------------------------------------------------------------
 #P Geom=AllCheck Guess=TCheck SCRF=Check Test GenChk RHF/Aug-CC-pVTZ F
 req
 ----------------------------------------------------------------------

 Structure from the checkpoint file:  "ammonium19.chk"
 --------
 ammonium
 --------
 Charge =  1 Multiplicity = 1

                         Standard orientation:
 ---------------------------------------------------------------------
 Center     Atomic      Atomic             Coordinates (Angstroms)
 Number     Number       Type             X           Y           Z
 ---------------------------------------------------------------------
      1          1           0        0.583092    0.583092    0.583092
      2          7           0        0.000000    0.000000    0.000000
      3          1           0       -0.583092   -0.583092    0.583092
      4          1           0       -0.583092    0.583092   -0.583092
      5          1           0        0.583092   -0.583092   -0.583092
 ---------------------------------------------------------------------

 SCF Done:  E(RHF) =  -56.5648490144     A.U. after    1 cycles

 The electronic state is 1-A1.
 Alpha  occ. eigenvalues --  -15.93747  -1.55656  -1.00764  -1.00764  -1.00764
 Alpha virt. eigenvalues --   -0.14654  -0.09143  -0.09143  -0.09143  -0.02746
 Alpha virt. eigenvalues --   -0.01728  -0.01728  -0.01728   0.01116   0.01116
 Alpha virt. eigenvalues --    0.01116   0.02119   0.02119   0.14872   0.16627

 Mulliken charges:
               1
     1  H    0.236303
     2  N    0.054788
     3  H    0.236303
     4  H    0.236303
     5  H    0.236303
 Sum of Mulliken charges =   1.00000

 Dipole moment (field-independent basis, Debye):
    X=             -0.0000    Y=             -0.0000    Z=              0.0000  Tot=              0.0000
 Quadrupole moment (field-independent basis, Debye-Ang):
   XX=             -4.3090   YY=             -4.3090   ZZ=             -4.3090
   XY=              0.0000   XZ=              0.0000   YZ=             -0.0000

  Exact polarizability:       8.632      -0.000       8.632      -0.000       0.000       8.632
 Approx polarizability:       7.503      -0.000       7.503       0.000       0.000       7.503

 ESP charges:
               1
     1  H    0.459892
     2  N   -0.839564
     3  H    0.459890
     4  H    0.459890
     5  H    0.459892
 Sum of ESP charges =   1.00000

                      1                      2                      3
                     T2                     T2                     T2
 Frequencies --   1601.7349              1601.7349              1601.7349
 Red. masses --      1.1572                 1.1572                 1.1572
 Frc consts  --      1.7492                 1.7492                 1.7492
 IR Inten    --    150.2822               150.2822               150.2822
 Raman Activ --      0.2429                 0.2429                 0.2429

                      4                      5                      6
                      E                      E                     A1
 Frequencies --   1846.4142              1846.4142              3566.7597
 Red. masses --      1.0078                 1.0078                 1.0078
 Frc consts  --      2.0244                 2.0244                 7.5541
 IR Inten    --      0.0000                 0.0000                 0.0000
 Raman Activ --      3.0271                 3.0271                97.3294

                      7                      8                      9
                     T2                     T2                     T2
 Frequencies --   3681.7054              3681.7054              3681.7054
 Red. masses --      1.0935                 1.0935                 1.0935
 Frc consts  --      8.7333                 8.7333                 8.7333
 IR Inten    --    192.1845               192.1845               192.1845
 Raman Activ --     17.0060                17.0060                17.0060

 - Thermochemistry -
 -------------------
 Temperature   298.150 Kelvin.  Pressure   1.00000 Atm.
 Atom     1 has atomic number  1 and mass   1.00783

 Molecular mass:    18.03437 amu.
 Principal axes and moments of inertia in atomic units:
                           1         2         3
     Eigenvalues --     9.78919   9.78919   9.78919
           X           -0.06818   0.99767   0.00000
           Y            0.99767   0.06818   0.00000
           Z            0.00000   0.00000   1.00000
 This molecule is a spherical top.
 Rotational symmetry number 12.
 Rotational temperatures (Kelvin)      8.84791     8.84791     8.84791
 Rotational constants (GHZ):         184.36058   184.36058   184.36058
 Zero-point vibrational energy     138228.0 (Joules/Mol)
                                   33.03727 (Kcal/Mol)
 Vibrational temperatures:   2304.54  2304.54  2304.54  2656.58  2656.58
          (Kelvin)           5131.77  5297.15  5297.15  5297.15

 Zero-point correction=                           0.052648 (Hartree/Particle)
 Thermal correction to Energy=                    0.055493
 Thermal correction to Enthalpy=                  0.056437
 Thermal correction to Gibbs Free Energy=         0.035386
 Sum of electronic and zero-point Energies=            -56.512201
 Sum of electronic and thermal Energies=               -56.509356
 Sum of electronic and thermal Enthalpies=             -56.508412
 Sum of electronic and thermal Free Energies=          -56.529463

                     E (Thermal)             CV                S
                      KCal/Mol        Cal/Mol-Kelvin    Cal/Mol-Kelvin
 Total                   34.822              6.161             44.305
 Electronic               0.000              0.000              0.000
 Translational            0.889              2.981             34.612
 Rotational               0.889              2.981              9.665
 Vibrational             33.045              0.199              0.028

 Optimization completed.
    -- Stationary point found.
 Normal termination of Gaussian 16 at Wed Jun 19 08:44:31 2024.
