 Gaussian 16, Revision C.01,
 Gaussian 16:  ES64L-G16RevC.01  3-Jul-2019

 ----------------------------------------------------------------------
 #P HF/aug-cc-pvtz Opt=(Redundant, calcall, verytight) symm=(loose,foll
 ow) Pop=(MK,Hirshfeld,ReadRadii) iop(6/33=2) iop(6/42=6) Polar Freq ma
 xdisk=128GB
 ----------------------------------------------------------------------

 -------------
 ethylammonium
 -------------
 Symbolic Z-matrix:
 Charge =  1 Multiplicity = 1

 SCF Done:  E(RHF) =  -134.674332409     A.U. after   11 cycles
 SCF Done:  E(RHF) =  -134.675638312     A.U. after    8 cycles
 SCF Done:  E(RHF) =  -134.675640631     A.U. after    6 cycles
 SCF Done:  E(RHF) =  -134.675640634     A.U. after    4 cycles
 Optimization completed.
    -- Stationary point found.
 Normal termination of Gaussian 16 at Wed Jun 19 13:39:09 2024.

 ----------------------------------------------------------------------
 #P Geom=AllCheck Guess=TCheck SCRF=Check Test GenChk RHF/Aug-CC-pVTZ F
 req
 ----------------------------------------------------------------------

 Structure from the checkpoint file:  "ethylammonium19.chk"
 -------------
 ethylammonium
 -------------
 Charge =  1 Multiplicity = 1

                         Standard orientation:
 ---------------------------------------------------------------------
 Center     Atomic      Atomic             Coordinates (Angstroms)
 Number     Number       Type             X           Y           Z
 ---------------------------------------------------------------------
      1          7           0       -1.171548   -0.351076   -0.000000
      2          6           0        0.000000    0.609680   -0.000000
      3          1           0       -2.051858    0.138256   -0.000000
      4          1           0       -1.152096   -0.946927    0.812127
      5          1           0       -1.152096   -0.946927   -0.812127
      6          1           0       -0.119025    1.224548    0.878397
      7          1           0       -0.119025    1.224548   -0.878397
      8          6           0        1.308978   -0.151648    0.000000
      9          1           0        1.409200   -0.771926    0.882480
     10          1           0        2.122668    0.559689    0.000000
     11          1           0        1.409200   -0.771926   -0.882480
 ---------------------------------------------------------------------

 SCF Done:  E(RHF) =  -134.675640634     A.U. after    1 cycles

 The electronic state is 1-A'.
 Alpha  occ. eigenvalues --  -15.89493 -11.48406 -11.40154  -1.52362  -1.22972
 Alpha  occ. eigenvalues --   -1.06828  -0.98438  -0.97246  -0.85852  -0.81050
 Alpha  occ. eigenvalues --   -0.73244  -0.71990  -0.70178
 Alpha virt. eigenvalues --   -0.11866  -0.08327  -0.08305  -0.07566  -0.04817
 Alpha virt. eigenvalues --   -0.04628  -0.04224  -0.03953  -0.03439  -0.02331
 Alpha virt. eigenvalues --    0.00246   0.00450   0.00760   0.01046   0.02323

 Mulliken charges:
               1
     1  N    0.144174
     2  C   -0.312477
     3  H    0.118375
     4  H    0.139585
     5  H    0.139585
     6  H    0.355992
     7  H    0.355992
     8  C   -0.920022
     9  H    0.310346
    10  H    0.358104
    11  H    0.310346
 Sum of Mulliken charges =   1.00000

 Dipole moment (field-independent basis, Debye):
    X=             -3.7465    Y=             -0.9499    Z=              0.0000  Tot=              3.8651
 Quadrupole moment (field-independent basis, Debye-Ang):
   XX=             -9.1776   YY=            -15.5972   ZZ=            -16.4258
   XY=              2.0263   XZ=              0.0000   YZ=             -0.0000

  Exact polarizability:      33.366       0.435      29.371      -0.000      -0.000      27.783
 Approx polarizability:      26.908       0.338      26.412      -0.000       0.000      26.038

 ESP charges:
               1
     1  N   -0.561733
     2  C    0.209558
     3  H    0.376073
     4  H    0.378705
     5  H    0.378705
     6  H    0.082237
     7  H    0.082237
     8  C   -0.374918
     9  H    0.134791
    10  H    0.159555
    11  H    0.134791
 Sum of ESP charges =   1.00000

                      1                      2                      3
                     A"                     A"                     A'
 Frequencies --    228.8924               280.1828               399.8064
 Red. masses --      1.0315                 1.1248                 2.1592
 Frc consts  --      0.0318                 0.0520                 0.2033
 IR Inten    --      0.3212                 0.7115                 8.8642
 Raman Activ --      0.0062                 0.0206                 0.7593

                      4                      5                      6
                     A"                     A'                     A"
 Frequencies --    846.4179               869.1774              1005.3116
 Red. masses --      1.0714                 3.1463                 1.0931
 Frc consts  --      0.4523                 1.4005                 0.6509
 IR Inten    --      8.8101                 9.3948                 5.8032
 Raman Activ --      0.0039                10.4638                 0.0620

                      7                      8                      9
                     A'                     A'                     A'
 Frequencies --   1011.9868              1071.2728              1284.4245
 Red. masses --      1.3674                 2.1273                 1.6734
 Frc consts  --      0.8251                 1.4384                 1.6266
 IR Inten    --     10.6763                16.1501                16.4696
 Raman Activ --      1.9705                 3.8673                 2.4127

                     10                     11                     12
                     A"                     A"                     A'
 Frequencies --   1338.2177              1459.5295              1524.9397
 Red. masses --      1.5759                 1.1266                 1.2659
 Frc consts  --      1.6628                 1.4140                 1.7345
 IR Inten    --      3.8383                 8.3258                 5.2037
 Raman Activ --      0.1940                 3.0183                 0.5502

                     13                     14                     15
                     A'                     A'                     A"
 Frequencies --   1561.1783              1607.9637              1609.6440
 Red. masses --      1.2527                 1.0703                 1.0378
 Frc consts  --      1.7989                 1.6305                 1.5842
 IR Inten    --     18.8812                 1.7203                 8.8623
 Raman Activ --      0.8290                 5.0276                 5.0981

                     16                     17                     18
                     A'                     A'                     A"
 Frequencies --   1631.8050              1644.4605              1793.1141
 Red. masses --      1.0888                 1.1778                 1.0417
 Frc consts  --      1.7081                 1.8765                 1.9733
 IR Inten    --     12.0847               150.8477                53.4152
 Raman Activ --      1.7474                 0.1459                 2.8494

                     19                     20                     21
                     A'                     A'                     A"
 Frequencies --   1794.6015              3171.2524              3234.3222
 Red. masses --      1.0441                 1.0380                 1.1057
 Frc consts  --      1.9812                 6.1506                 6.8149
 IR Inten    --     38.5630                 5.3860                 9.5333
 Raman Activ --      3.1044               149.2252                59.1975

                     22                     23                     24
                     A'                     A'                     A"
 Frequencies --   3235.8104              3263.8383              3296.0618
 Red. masses --      1.0616                 1.0999                 1.1129
 Frc consts  --      6.5489                 6.9031                 7.1234
 IR Inten    --      2.7468                 3.2529                 3.6533
 Raman Activ --     88.6923                61.4653                26.2923

                     25                     26                     27
                     A'                     A"                     A'
 Frequencies --   3616.2814              3702.1680              3705.5199
 Red. masses --      1.0310                 1.0940                 1.0942
 Frc consts  --      7.9442                 8.8342                 8.8521
 IR Inten    --     56.5101               106.8482               113.9001
 Raman Activ --     82.6644                20.2288                29.9293

 - Thermochemistry -
 -------------------
 Temperature   298.150 Kelvin.  Pressure   1.00000 Atm.
 Atom     1 has atomic number  7 and mass  14.00307

 Molecular mass:    46.06567 amu.
 Principal axes and moments of inertia in atomic units:
                           1         2         3
     Eigenvalues --    60.37445 214.61224 243.17286
           X            0.99566  -0.09310   0.00000
           Y            0.09310   0.99566   0.00000
           Z            0.00000  -0.00000   1.00000
 This molecule is an asymmetric top.
 Rotational symmetry number  1.
 Rotational temperatures (Kelvin)      1.43461     0.40358     0.35618
 Rotational constants (GHZ):          29.89246     8.40931     7.42164
 Zero-point vibrational energy     300192.0 (Joules/Mol)
                                   71.74761 (Kcal/Mol)
 Warning -- explicit consideration of   3 degrees of freedom as
           vibrations may cause significant error
 Vibrational temperatures:    329.33   403.12   575.23  1217.81  1250.55
          (Kelvin)           1446.42  1456.02  1541.32  1848.00  1925.40
                             2099.94  2194.05  2246.19  2313.50  2315.92
                             2347.80  2366.01  2579.89  2582.03  4562.72
                             4653.47  4655.61  4695.94  4742.30  5203.02
                             5326.59  5331.42

 Zero-point correction=                           0.114337 (Hartree/Particle)
 Thermal correction to Energy=                    0.118718
 Thermal correction to Enthalpy=                  0.119662
 Thermal correction to Gibbs Free Energy=         0.088701
 Sum of electronic and zero-point Energies=           -134.561304
 Sum of electronic and thermal Energies=              -134.556923
 Sum of electronic and thermal Enthalpies=            -134.555979
 Sum of electronic and thermal Free Energies=         -134.586940

                     E (Thermal)             CV                S
                      KCal/Mol        Cal/Mol-Kelvin    Cal/Mol-Kelvin
 Total                   74.496             13.849             65.163
 Electronic               0.000              0.000              0.000
 Translational            0.889              2.981             37.408
 Rotational               0.889              2.981             22.670
 Vibrational             72.719              7.887              5.085
 Vibration     1          0.652              1.797              1.888
 Vibration     2          0.680              1.710              1.533
 Vibration     3          0.766              1.471              0.963

 Optimization completed.
    -- Stationary point found.
 Normal termination of Gaussian 16 at Wed Jun 19 13:43:49 2024.
