 Gaussian 16, Revision C.01,
 Gaussian 16:  ES64L-G16RevC.01  3-Jul-2019

 ----------------------------------------------------------------------
 #P HF/aug-cc-pvtz Opt=(Redundant, calcall, verytight) symm=(loose,foll
 ow) Pop=(MK,Hirshfeld,ReadRadii) iop(6/33=2) iop(6/42=6) Polar Freq ma
 xdisk=128GB
 ----------------------------------------------------------------------

 ----------
 sodium-ion
 ----------
 Symbolic Z-matrix:
 Charge =  1 Multiplicity = 1

 SCF Done:  E(RHF) =  -161.676018791     A.U. after    5 cycles
 Optimization completed.
    -- Stationary point found.
 Normal termination of Gaussian 16 at Wed Jun 19 13:27:34 2024.

 ----------------------------------------------------------------------
 #P Geom=AllCheck Guess=TCheck SCRF=Check Test GenChk RHF/Aug-CC-pVTZ F
 req
 ----------------------------------------------------------------------

 Structure from the checkpoint file:  "sodium-ion19.chk"
 ----------
 sodium-ion
 ----------
 Charge =  1 Multiplicity = 1

                         Standard orientation:
 ---------------------------------------------------------------------
 Center     Atomic      Atomic             Coordinates (Angstroms)
 Number     Number       Type             X           Y           Z
 ---------------------------------------------------------------------
      1         11           0        0.000000    0.000000    0.000000
 ---------------------------------------------------------------------

 SCF Done:  E(RHF) =  -161.676018791     A.U. after    1 cycles

 The electronic state is 1-A1G.
 Alpha  occ. eigenvalues --  -40.76395  -3.07544  -1.79857  -1.79857  -1.79857
 Alpha virt. eigenvalues --   -0.18185  -0.10944  -0.10944  -0.10944  -0.07001
 Alpha virt. eigenvalues --   -0.04998  -0.04998  -0.04998  -0.04900  -0.04900
 Alpha virt. eigenvalues --   -0.04900  -0.04900  -0.04900  -0.00742  -0.00742

 Mulliken charges:
               1
     1  Na   1.000000
 Sum of Mulliken charges =   1.00000

 Dipole moment (field-independent basis, Debye):
    X=              0.0000    Y=              0.0000    Z=              0.0000  Tot=              0.0000
 Quadrupole moment (field-independent basis, Debye-Ang):
   XX=             -2.8791   YY=             -2.8791   ZZ=             -2.8791
   XY=              0.0000   XZ=              0.0000   YZ=              0.0000

  Exact polarizability:       0.393       0.000       0.393       0.000       0.000       0.393
 Approx polarizability:       0.317      -0.000       0.317      -0.000      -0.000       0.317

 ESP charges:
               1
     1  Na   1.000000
 Sum of ESP charges =   1.00000

 - Thermochemistry -
 -------------------
 Temperature   298.150 Kelvin.  Pressure   1.00000 Atm.
 Atom     1 has atomic number 11 and mass  22.98977
 Molecular mass:    22.98977 amu.
 Zero-point vibrational energy          0.0 (Joules/Mol)
                                    0.00000 (Kcal/Mol)
 Vibrational temperatures:
          (Kelvin)

 Zero-point correction=                           0.000000 (Hartree/Particle)
 Thermal correction to Energy=                    0.001416
 Thermal correction to Enthalpy=                  0.002360
 Thermal correction to Gibbs Free Energy=        -0.014429
 Sum of electronic and zero-point Energies=           -161.676019
 Sum of electronic and thermal Energies=              -161.674603
 Sum of electronic and thermal Enthalpies=            -161.673658
 Sum of electronic and thermal Free Energies=         -161.690448

                     E (Thermal)             CV                S
                      KCal/Mol        Cal/Mol-Kelvin    Cal/Mol-Kelvin
 Total                    0.889              2.981             35.336
 Electronic               0.000              0.000              0.000
 Translational            0.889              2.981             35.336
 Rotational               0.000              0.000              0.000
 Vibrational              0.000              0.000              0.000

 Optimization completed.
    -- Stationary point found.
 Normal termination of Gaussian 16 at Wed Jun 19 13:27:38 2024.
