 Gaussian 16, Revision C.01,
 Gaussian 16:  ES64L-G16RevC.01  3-Jul-2019

 ----------------------------------------------------------------------
 #P HF/aug-cc-pvtz Opt=(Redundant, calcall, verytight) symm=(loose,foll
 ow) Pop=(MK,Hirshfeld,ReadRadii) iop(6/33=2) iop(6/42=6) Polar Freq ma
 xdisk=128GB
 ----------------------------------------------------------------------

 -------
 bromide
 -------
 Symbolic Z-matrix:
 Charge = -1 Multiplicity = 1

 SCF Done:  E(RHF) =  -2572.53367765     A.U. after    9 cycles
 Optimization completed.
    -- Stationary point found.
 Normal termination of Gaussian 16 at Wed Jun 19 08:44:16 2024.

 ----------------------------------------------------------------------
 #P Geom=AllCheck Guess=TCheck SCRF=Check Test GenChk RHF/Aug-CC-pVTZ F
 req
 ----------------------------------------------------------------------

 Structure from the checkpoint file:  "bromide19.chk"
 -------
 bromide
 -------
 Charge = -1 Multiplicity = 1

                         Standard orientation:
 ---------------------------------------------------------------------
 Center     Atomic      Atomic             Coordinates (Angstroms)
 Number     Number       Type             X           Y           Z
 ---------------------------------------------------------------------
      1         35           0        0.000000    0.000000    0.000000
 ---------------------------------------------------------------------

 SCF Done:  E(RHF) =  -2572.53367765     A.U. after    1 cycles

 The electronic state is 1-A1G.
 Alpha  occ. eigenvalues -- -489.72028 -64.86040 -58.21486 -58.21486 -58.21486
 Alpha  occ. eigenvalues --   -9.53283  -7.14017  -7.14017  -7.14017  -2.88184
 Alpha  occ. eigenvalues --   -2.88184  -2.88184  -2.88184  -2.88184  -0.68600
 Alpha  occ. eigenvalues --   -0.13934  -0.13934  -0.13934
 Alpha virt. eigenvalues --    0.25157   0.25157   0.25157   0.28051   0.49083
 Alpha virt. eigenvalues --    0.49083   0.49083   0.49083   0.49083   0.74101
 Alpha virt. eigenvalues --    0.74101   0.74101   0.91174   1.03420   1.03420

 Mulliken charges:
               1
     1  Br  -1.000000
 Sum of Mulliken charges =  -1.00000

 Dipole moment (field-independent basis, Debye):
    X=              0.0000    Y=              0.0000    Z=              0.0000  Tot=              0.0000
 Quadrupole moment (field-independent basis, Debye-Ang):
   XX=            -23.9612   YY=            -23.9612   ZZ=            -23.9612
   XY=             -0.0000   XZ=             -0.0000   YZ=              0.0000

  Exact polarizability:      36.913       0.000      36.913       0.000       0.000      36.913
 Approx polarizability:      32.244      -0.000      32.244      -0.000      -0.000      32.244

 ESP charges:
               1
     1  Br  -1.000000
 Sum of ESP charges =  -1.00000

 - Thermochemistry -
 -------------------
 Temperature   298.150 Kelvin.  Pressure   1.00000 Atm.
 Atom     1 has atomic number 35 and mass  78.91834
 Molecular mass:    78.91834 amu.
 Zero-point vibrational energy          0.0 (Joules/Mol)
                                    0.00000 (Kcal/Mol)
 Vibrational temperatures:
          (Kelvin)

 Zero-point correction=                           0.000000 (Hartree/Particle)
 Thermal correction to Energy=                    0.001416
 Thermal correction to Enthalpy=                  0.002360
 Thermal correction to Gibbs Free Energy=        -0.016176
 Sum of electronic and zero-point Energies=          -2572.533678
 Sum of electronic and thermal Energies=             -2572.532261
 Sum of electronic and thermal Enthalpies=           -2572.531317
 Sum of electronic and thermal Free Energies=        -2572.549853

                     E (Thermal)             CV                S
                      KCal/Mol        Cal/Mol-Kelvin    Cal/Mol-Kelvin
 Total                    0.889              2.981             39.012
 Electronic               0.000              0.000              0.000
 Translational            0.889              2.981             39.012
 Rotational               0.000              0.000              0.000
 Vibrational              0.000              0.000              0.000

 Optimization completed.
    -- Stationary point found.
 Normal termination of Gaussian 16 at Wed Jun 19 08:44:23 2024.
