 Gaussian 16, Revision C.01,
 Gaussian 16:  ES64L-G16RevC.01  3-Jul-2019

 ----------------------------------------------------------------------
 #P HF/aug-cc-pvtz Opt=(Redundant, calcall, verytight) symm=(loose,foll
 ow) Pop=(MK,Hirshfeld,ReadRadii) iop(6/33=2) iop(6/42=6) Polar Freq ma
 xdisk=128GB
 ----------------------------------------------------------------------

 -----------
 lithium-ion
 -----------
 Symbolic Z-matrix:
 Charge =  1 Multiplicity = 1

 SCF Done:  E(RHF) =  -7.23638038900     A.U. after    5 cycles
 Optimization completed.
    -- Stationary point found.
 Normal termination of Gaussian 16 at Wed Jun 19 13:03:41 2024.

 ----------------------------------------------------------------------
 #P Geom=AllCheck Guess=TCheck SCRF=Check Test GenChk RHF/Aug-CC-pVTZ F
 req
 ----------------------------------------------------------------------

 Structure from the checkpoint file:  "lithium-ion19.chk"
 -----------
 lithium-ion
 -----------
 Charge =  1 Multiplicity = 1

                         Standard orientation:
 ---------------------------------------------------------------------
 Center     Atomic      Atomic             Coordinates (Angstroms)
 Number     Number       Type             X           Y           Z
 ---------------------------------------------------------------------
      1          3           0        0.000000    0.000000    0.000000
 ---------------------------------------------------------------------

 SCF Done:  E(RHF) =  -7.23638038900     A.U. after    1 cycles

 The electronic state is 1-A1G.
 Alpha  occ. eigenvalues --   -2.79236
 Alpha virt. eigenvalues --   -0.19629  -0.12860  -0.12860  -0.12860  -0.07356
 Alpha virt. eigenvalues --   -0.05635  -0.05635  -0.05635  -0.03634  -0.03634
 Alpha virt. eigenvalues --   -0.03634  -0.03634  -0.03634  -0.00315  -0.00315

 Mulliken charges:
               1
     1  Li   1.000000
 Sum of Mulliken charges =   1.00000

 Dipole moment (field-independent basis, Debye):
    X=              0.0000    Y=              0.0000    Z=              0.0000  Tot=              0.0000
 Quadrupole moment (field-independent basis, Debye-Ang):
   XX=             -0.3994   YY=             -0.3994   ZZ=             -0.3994
   XY=             -0.0000   XZ=             -0.0000   YZ=             -0.0000

  Exact polarizability:       0.120       0.000       0.120       0.000       0.000       0.120
 Approx polarizability:       0.100      -0.000       0.100      -0.000      -0.000       0.100

 ESP charges:
               1
     1  Li   1.000000
 Sum of ESP charges =   1.00000

 - Thermochemistry -
 -------------------
 Temperature   298.150 Kelvin.  Pressure   1.00000 Atm.
 Atom     1 has atomic number  3 and mass   7.01600
 Molecular mass:     7.01600 amu.
 Zero-point vibrational energy          0.0 (Joules/Mol)
                                    0.00000 (Kcal/Mol)
 Vibrational temperatures:
          (Kelvin)

 Zero-point correction=                           0.000000 (Hartree/Particle)
 Thermal correction to Energy=                    0.001416
 Thermal correction to Enthalpy=                  0.002360
 Thermal correction to Gibbs Free Energy=        -0.012748
 Sum of electronic and zero-point Energies=             -7.236380
 Sum of electronic and thermal Energies=                -7.234964
 Sum of electronic and thermal Enthalpies=              -7.234020
 Sum of electronic and thermal Free Energies=           -7.249128

                     E (Thermal)             CV                S
                      KCal/Mol        Cal/Mol-Kelvin    Cal/Mol-Kelvin
 Total                    0.889              2.981             31.798
 Electronic               0.000              0.000              0.000
 Translational            0.889              2.981             31.798
 Rotational               0.000              0.000              0.000
 Vibrational              0.000              0.000              0.000

 Optimization completed.
    -- Stationary point found.
 Normal termination of Gaussian 16 at Wed Jun 19 13:03:45 2024.
