 Gaussian 16, Revision C.01,
 Gaussian 16:  ES64L-G16RevC.01  3-Jul-2019

 ----------------------------------------------------------------------
 #P HF/aug-cc-pvtz Opt=(Redundant, calcall, verytight) symm=(loose,foll
 ow) Pop=(MK,Hirshfeld,ReadRadii) iop(6/33=2) iop(6/42=6) Polar Freq ma
 xdisk=128GB
 ----------------------------------------------------------------------

 --------------
 methylammonium
 --------------
 Symbolic Z-matrix:
 Charge =  1 Multiplicity = 1

 SCF Done:  E(RHF) =  -95.6181645312     A.U. after   10 cycles
 SCF Done:  E(RHF) =  -95.6192414156     A.U. after    8 cycles
 SCF Done:  E(RHF) =  -95.6192435437     A.U. after    6 cycles
 SCF Done:  E(RHF) =  -95.6192435442     A.U. after    3 cycles
 Optimization completed.
    -- Stationary point found.
 Normal termination of Gaussian 16 at Wed Jun 19 08:45:37 2024.

 ----------------------------------------------------------------------
 #P Geom=AllCheck Guess=TCheck SCRF=Check Test GenChk RHF/Aug-CC-pVTZ F
 req
 ----------------------------------------------------------------------

 Structure from the checkpoint file:  "methylammonium19.chk"
 --------------
 methylammonium
 --------------
 Charge =  1 Multiplicity = 1

                         Standard orientation:
 ---------------------------------------------------------------------
 Center     Atomic      Atomic             Coordinates (Angstroms)
 Number     Number       Type             X           Y           Z
 ---------------------------------------------------------------------
      1          7           0        0.000000    0.000000    0.707159
      2          6           0        0.000000    0.000000   -0.796116
      3          1           0        0.000000    0.938446    1.074061
      4          1           0        0.812718   -0.469223    1.074061
      5          1           0       -0.812718   -0.469223    1.074061
      6          1           0        0.886341    0.511729   -1.131868
      7          1           0       -0.886341    0.511729   -1.131868
      8          1           0       -0.000000   -1.023459   -1.131868
 ---------------------------------------------------------------------

 SCF Done:  E(RHF) =  -95.6192435442     A.U. after    1 cycles

 The electronic state is 1-A1.
 Alpha  occ. eigenvalues --  -15.90932 -11.48948  -1.53544  -1.18214  -0.99449
 Alpha  occ. eigenvalues --   -0.99449  -0.86859  -0.78723  -0.78723
 Alpha virt. eigenvalues --   -0.12730  -0.08643  -0.08643  -0.08431  -0.04758
 Alpha virt. eigenvalues --   -0.04758  -0.04349  -0.01877  -0.01877  -0.01552
 Alpha virt. eigenvalues --    0.00567   0.00567   0.00752   0.04098   0.04098

 Mulliken charges:
               1
     1  N    0.138526
     2  C   -0.783392
     3  H    0.157416
     4  H    0.157416
     5  H    0.157416
     6  H    0.390873
     7  H    0.390873
     8  H    0.390873
 Sum of Mulliken charges =   1.00000

 Dipole moment (field-independent basis, Debye):
    X=             -0.0000    Y=             -0.0000    Z=              2.1425  Tot=              2.1425
 Quadrupole moment (field-independent basis, Debye-Ang):
   XX=            -10.1524   YY=            -10.1524   ZZ=             -6.8593
   XY=              0.0000   XZ=              0.0000   YZ=             -0.0000

  Exact polarizability:      18.188       0.000      18.188      -0.000       0.000      21.062
 Approx polarizability:      16.405       0.000      16.405      -0.000       0.000      16.941

 ESP charges:
               1
     1  N   -0.367624
     2  C   -0.041267
     3  H    0.342829
     4  H    0.342796
     5  H    0.342941
     6  H    0.125781
     7  H    0.128235
     8  H    0.126308
 Sum of ESP charges =   1.00000

                      1                      2                      3
                     A2                      E                      E
 Frequencies --    303.4065               972.8339               972.8339
 Red. masses --      1.0078                 1.0528                 1.0528
 Frc consts  --      0.0547                 0.5871                 0.5871
 IR Inten    --      0.0000                21.5621                21.5621
 Raman Activ --      0.0000                 0.0138                 0.0138

                      4                      5                      6
                     A1                      E                      E
 Frequencies --    976.5731              1386.0889              1386.0889
 Red. masses --      4.6685                 1.3980                 1.3980
 Frc consts  --      2.6233                 1.5825                 1.5825
 IR Inten    --     14.8913                 6.0404                 6.0404
 Raman Activ --     10.0892                 0.6683                 0.6683

                      7                      8                      9
                     A1                      E                      E
 Frequencies --   1586.2286              1614.9486              1614.9486
 Red. masses --      1.1483                 1.0383                 1.0383
 Frc consts  --      1.7023                 1.5954                 1.5954
 IR Inten    --      0.1802                19.4865                19.4865
 Raman Activ --      0.2301                 3.6922                 3.6922

                     10                     11                     12
                     A1                      E                      E
 Frequencies --   1657.2895              1796.4848              1796.4848
 Red. masses --      1.1787                 1.0399                 1.0399
 Frc consts  --      1.9075                 1.9774                 1.9774
 IR Inten    --    135.2500                43.2989                43.2989
 Raman Activ --      0.1241                 3.3182                 3.3182

                     13                     14                     15
                     A1                      E                      E
 Frequencies --   3220.9517              3325.4773              3325.4773
 Red. masses --      1.0295                 1.1120                 1.1120
 Frc consts  --      6.2926                 7.2455                 7.2455
 IR Inten    --      0.2080                 0.0092                 0.0092
 Raman Activ --    126.7902                33.6124                33.6124

                     16                     17                     18
                     A1                      E                      E
 Frequencies --   3616.6096              3699.6324              3699.6324
 Red. masses --      1.0317                 1.0942                 1.0942
 Frc consts  --      7.9506                 8.8238                 8.8238
 IR Inten    --     58.1223               129.6024               129.6024
 Raman Activ --     80.0087                22.8410                22.8410

 - Thermochemistry -
 -------------------
 Temperature   298.150 Kelvin.  Pressure   1.00000 Atm.
 Atom     1 has atomic number  7 and mass  14.00307

 Molecular mass:    32.05002 amu.
 Principal axes and moments of inertia in atomic units:
                           1         2         3
     Eigenvalues --    20.81827  88.86034  88.86034
           X            0.00000   0.29219   0.95636
           Y            0.00000   0.95636  -0.29219
           Z            1.00000  -0.00000  -0.00000
 This molecule is a prolate symmetric top.
 Rotational symmetry number  3.
 Rotational temperatures (Kelvin)      4.16048     0.97472     0.97472
 Rotational constants (GHZ):          86.69024    20.30986    20.30986
 Zero-point vibrational energy     221022.0 (Joules/Mol)
                                   52.82552 (Kcal/Mol)
 Warning -- explicit consideration of   1 degrees of freedom as
           vibrations may cause significant error
 Vibrational temperatures:    436.53  1399.69  1399.69  1405.07  1994.27
          (Kelvin)           1994.27  2282.23  2323.55  2323.55  2384.47
                             2584.74  2584.74  4634.23  4784.62  4784.62
                             5203.49  5322.95  5322.95

 Zero-point correction=                           0.084183 (Hartree/Particle)
 Thermal correction to Energy=                    0.087584
 Thermal correction to Enthalpy=                  0.088528
 Thermal correction to Gibbs Free Energy=         0.062081
 Sum of electronic and zero-point Energies=            -95.535061
 Sum of electronic and thermal Energies=               -95.531660
 Sum of electronic and thermal Enthalpies=             -95.530715
 Sum of electronic and thermal Free Energies=          -95.557162

                     E (Thermal)             CV                S
                      KCal/Mol        Cal/Mol-Kelvin    Cal/Mol-Kelvin
 Total                   54.960              9.319             55.662
 Electronic               0.000              0.000              0.000
 Translational            0.889              2.981             36.326
 Rotational               0.889              2.981             17.553
 Vibrational             53.182              3.358              1.783
 Vibration     1          0.695              1.667              1.398

 Optimization completed.
    -- Stationary point found.
 Normal termination of Gaussian 16 at Wed Jun 19 08:46:06 2024.
